 Gaussian 09, Revision A.01,
 Gaussian 09:  EM64L-G09RevA.01  8-May-2009

 ----------------------------------------------------------------------
 #p b3lyp/sto-3g gfinput iop(6/7=3) density guess=Read iop(6/50=1) iop(
 6/33=2) iop(6/42=6) pop=mk test units=(ang,deg)
 ----------------------------------------------------------------------

 -------------------
 Title Card Required
 -------------------
 Symbolic Z-matrix:
 Charge =  0 Multiplicity = 1

                         Standard orientation:
 ---------------------------------------------------------------------
 Center     Atomic      Atomic             Coordinates (Angstroms)
 Number     Number       Type             X           Y           Z
 ---------------------------------------------------------------------
      1          8           0       -1.447044    4.454003   -1.252441
      2          6           0       -0.793747    2.503473    0.038273
      3          6           0       -1.286423    1.557448   -1.074970
      4          6           0       -2.329978   -0.782091   -0.324127
      5          6           0       -1.901229   -1.974829    0.465973
      6          6           0       -3.195635   -2.458302    1.184016
      7          6           0       -4.438605   -2.216856    0.259239
      8          7           0       -4.029060   -2.499965   -1.083348
      9          6           0       -3.178144   -1.346676   -1.522860
     10          6           0        0.395586    1.849906    0.767611
     11          6           0        0.624982    2.129284    2.124004
     12          6           0        1.708299    1.533654    2.786755
     13          6           0        2.556669    0.658941    2.095586
     14          6           0        2.325543    0.378076    0.742770
     15          6           0        3.257306   -0.591196   -0.011936
     16          6           0        3.035106   -0.871555   -1.369450
     17          6           0        3.890514   -1.747562   -2.053564
     18          6           0        4.965706   -2.346679   -1.381933
     19          6           0        5.183762   -2.071275   -0.022610
     20          6           0        4.327566   -1.192629    0.663057
     21          6           0        1.247283    0.975083    0.073811
     22          6           0       -0.343405    3.846656   -0.572995
     23          6           0       -1.153858    0.031259   -0.892720
     24          8           0       -1.794384    2.026230   -2.126938
     25          8           0       -3.450661   -1.722736    2.395139
     26          1           0       -2.160775    4.610500   -0.628509
     27          1           0       -1.589426    2.682807    0.734379
     28          1           0       -2.912612   -0.156674    0.327367
     29          1           0       -1.146518   -1.772608    1.202369
     30          1           0       -1.522807   -2.699380   -0.234009
     31          1           0       -3.047493   -3.496732    1.414574
     32          1           0       -4.747302   -1.192435    0.283175
     33          1           0       -5.248226   -2.835442    0.592842
     34          1           0       -3.515475   -3.363929   -1.058990
     35          1           0       -3.779637   -0.537368   -1.894150
     36          1           0       -2.542243   -1.717023   -2.305106
     37          1           0       -0.022525    2.793872    2.652246
     38          1           0        1.886135    1.746444    3.821407
     39          1           0        3.382725    0.206359    2.603691
     40          1           0        2.214106   -0.417597   -1.883764
     41          1           0        3.723153   -1.962357   -3.092370
     42          1           0        5.618728   -3.012819   -1.907315
     43          1           0        6.003319   -2.531708    0.491671
     44          1           0        4.491626   -0.980492    1.700841
     45          1           0        1.076027    0.763926   -0.962852
     46          1           0       -0.004471    4.496847    0.207213
     47          1           0        0.450437    3.674821   -1.266036
     48          1           0       -4.250394   -2.044011    2.815097
 ---------------------------------------------------------------------

 SCF Done:  E(RB3LYP) =  -1080.47620126     A.U. after   15 cycles

 The electronic state is 1-A.
 Alpha  occ. eigenvalues --  -18.86212 -18.86069 -18.85422 -14.13575 -10.06676
 Alpha  occ. eigenvalues --  -10.06497 -10.05479 -10.05216 -10.05136 -10.03585
 Alpha  occ. eigenvalues --  -10.02969 -10.02693 -10.01679 -10.01576 -10.01355
 Alpha  occ. eigenvalues --  -10.00569 -10.00464 -10.00416 -10.00297 -10.00251
 Alpha  occ. eigenvalues --  -10.00200 -10.00174 -10.00172  -9.99844  -9.95882
 Alpha  occ. eigenvalues --   -0.96177  -0.96064  -0.94202  -0.89787  -0.82057
 Alpha  occ. eigenvalues --   -0.80124  -0.77741  -0.75186  -0.72237  -0.71764
 Alpha  occ. eigenvalues --   -0.70212  -0.68239  -0.67072  -0.65298  -0.62678
 Alpha  occ. eigenvalues --   -0.60412  -0.58575  -0.57430  -0.56923  -0.54564
 Alpha  occ. eigenvalues --   -0.52807  -0.52680  -0.50244  -0.49278  -0.47127
 Alpha  occ. eigenvalues --   -0.45821  -0.45388  -0.44808  -0.43704  -0.42175
 Alpha  occ. eigenvalues --   -0.41484  -0.40548  -0.39862  -0.39723  -0.38992
 Alpha  occ. eigenvalues --   -0.37952  -0.37642  -0.37436  -0.37395  -0.36858
 Alpha  occ. eigenvalues --   -0.36144  -0.35813  -0.34398  -0.33149  -0.32981
 Alpha  occ. eigenvalues --   -0.32108  -0.31818  -0.31639  -0.30525  -0.30184
 Alpha  occ. eigenvalues --   -0.29171  -0.28407  -0.27937  -0.26025  -0.22397
 Alpha  occ. eigenvalues --   -0.22329  -0.20827  -0.19385  -0.18964  -0.16627
 Alpha  occ. eigenvalues --   -0.16373  -0.14633  -0.12919  -0.12433  -0.09299
 Alpha virt. eigenvalues --    0.00466   0.05906   0.08677   0.09334   0.10177
 Alpha virt. eigenvalues --    0.12846   0.23554   0.26691   0.28399   0.29027
 Alpha virt. eigenvalues --    0.31332   0.33399   0.33650   0.34168   0.35503

 Mulliken atomic charges:
              1
     1  O   -0.279497
     2  C   -0.094083
     3  C    0.098405
     4  C   -0.097973
     5  C   -0.151589
     6  C    0.025281
     7  C   -0.086477
     8  N   -0.317699
     9  C   -0.070217
    10  C   -0.003795
    11  C   -0.092596
    12  C   -0.082592
    13  C   -0.087179
    14  C   -0.001615
    15  C   -0.001136
    16  C   -0.083277
    17  C   -0.081708
    18  C   -0.084625
    19  C   -0.082583
    20  C   -0.084300
    21  C   -0.091464
    22  C   -0.051168
    23  C    0.000264
    24  O   -0.192356
    25  O   -0.297873
    26  H    0.193408
    27  H    0.081127
    28  H    0.082898
    29  H    0.097917
    30  H    0.084066
    31  H    0.067020
    32  H    0.094272
    33  H    0.082106
    34  H    0.182233
    35  H    0.099107
    36  H    0.098515
    37  H    0.078686
    38  H    0.082476
    39  H    0.081642
    40  H    0.088814
    41  H    0.083077
    42  H    0.082477
    43  H    0.082287
    44  H    0.081890
    45  H    0.100756
    46  H    0.073319
    47  H    0.096024
    48  H    0.197733
 Sum of Mulliken atomic charges =   0.00000

 Dipole moment (field-independent basis, Debye):
    X=             -1.2618    Y=             -2.4136    Z=              3.2768  Tot=              4.2609
 Quadrupole moment (field-independent basis, Debye-Ang):
   XX=           -128.0831   YY=           -131.2368   ZZ=           -138.9200
   XY=              2.1923   XZ=             -9.6669   YZ=              8.0888

 1\1\GINC-A869AA4EB327\SP\RB3LYP\STO-3G\C21H23N1O3\ROOT\09-Oct-2022\0\\
 #p b3lyp/sto-3g gfinput iop(6/7=3) density guess=Read iop(6/50=1) iop(
 6/33=2) iop(6/42=6) pop=mk test units=(ang,deg)\\Title Card Required\\
 0,1\O,0,-3.717,-3.364,0.872\C,0,-2.486,-1.271,0.908\C,0,-1.149,-2.019,
 1.081\C,0,0.737,-0.836,2.554\C,0,1.488,0.455,2.549\C,0,1.703,0.792,4.0
 54\C,0,1.915,-0.53,4.87\N,0,2.695,-1.411,4.054\C,0,1.777,-1.933,2.99\C
 ,0,-2.24,0.028,0.117\C,0,-3.053,1.15,0.342\C,0,-2.828,2.332,-0.379\C,0
 ,-1.791,2.392,-1.319\C,0,-0.978,1.273,-1.541\C,0,0.167,1.346,-2.571\C,

 Normal termination of Gaussian 09 at Sun Oct  9 22:03:05 2022.
