 Gaussian 09, Revision A.01,
 Gaussian 09:  EM64L-G09RevA.01  8-May-2009

 ----------------------------------------------------------------------
 #p b3lyp/6-311g gfinput iop(6/7=3) density guess=Read iop(6/50=1) iop(
 6/33=2) iop(6/42=6) pop=mk test units=(ang,deg)
 ----------------------------------------------------------------------

 -------------------
 Title Card Required
 -------------------
 Symbolic Z-matrix:
 Charge =  0 Multiplicity = 1

                         Standard orientation:
 ---------------------------------------------------------------------
 Center     Atomic      Atomic             Coordinates (Angstroms)
 Number     Number       Type             X           Y           Z
 ---------------------------------------------------------------------
      1          8           0        0.566645    3.452375    1.945869
      2          6           0        0.815640    2.866812    0.666581
      3          6           0        1.769017    1.668117    0.828195
      4          8           0        2.018837    1.081873   -0.452455
      5          6           0        2.906491   -0.029524   -0.303042
      6          6           0        3.211408   -0.724072   -1.582841
      7          6           0        4.396967   -1.673398   -1.257741
      8          6           0        4.257573   -2.202832    0.203808
      9          7           0        2.872735   -2.449247    0.435428
     10          6           0        2.222354   -1.108072    0.605485
     11          6           0       -0.513328    2.387370    0.053223
     12          6           0       -1.265700    3.252562   -0.751473
     13          6           0       -2.476259    2.817397   -1.307937
     14          6           0       -2.932533    1.515552   -1.061474
     15          6           0       -2.180028    0.649383   -0.256943
     16          6           0       -2.681539   -0.780475    0.014346
     17          6           0       -1.929034   -1.646644    0.818877
     18          6           0       -2.386264   -2.948659    1.065581
     19          6           0       -3.597086   -3.383698    0.508160
     20          6           0       -4.349460   -2.516678   -0.295249
     21          6           0       -3.892361   -1.215514   -0.543075
     22          6           0       -0.969602    1.085525    0.299687
     23          1           0        1.394499    3.751546    2.328343
     24          1           0        1.263801    3.593361    0.022250
     25          1           0        2.692621    2.001637    1.253670
     26          1           0        1.321944    0.940761    1.472120
     27          1           0        3.832070    0.318128    0.107027
     28          1           0        3.493538   -0.072479   -2.382701
     29          1           0        2.329230   -1.260161   -1.866632
     30          1           0        5.339100   -1.167776   -1.301881
     31          1           0        4.375639   -2.457691   -1.984879
     32          1           0        4.567985   -1.465702    0.915183
     33          1           0        4.863164   -3.077843    0.314667
     34          1           0        2.527573   -2.944065   -0.362987
     35          1           0        2.298644   -0.757872    1.613572
     36          1           0        1.192914   -1.237258    0.344872
     37          1           0       -0.917103    4.246714   -0.940962
     38          1           0       -3.051399    3.479007   -1.922735
     39          1           0       -3.856962    1.182713   -1.485586
     40          1           0       -1.005165   -1.315080    1.244020
     41          1           0       -1.811387   -3.610144    1.679422
     42          1           0       -3.946079   -4.376747    0.696858
     43          1           0       -5.273197   -2.849220   -0.720558
     44          1           0       -4.467238   -0.554030   -1.156916
     45          1           0       -0.394725    0.424041    0.913528
 ---------------------------------------------------------------------

 SCF Done:  E(RB3LYP) =  -942.969715475     A.U. after   14 cycles

 The electronic state is 1-A.
 Alpha  occ. eigenvalues --  -19.12829 -19.12298 -14.29726 -10.23654 -10.22507
 Alpha  occ. eigenvalues --  -10.22230 -10.19806 -10.19375 -10.19202 -10.19135
 Alpha  occ. eigenvalues --  -10.18731 -10.17931 -10.17926 -10.17779 -10.17737
 Alpha  occ. eigenvalues --  -10.17714 -10.17669 -10.17547 -10.17542 -10.17460
 Alpha  occ. eigenvalues --  -10.17066 -10.16735  -1.05447  -1.03993  -0.93806
 Alpha  occ. eigenvalues --   -0.87429  -0.85510  -0.80790  -0.78629  -0.77298
 Alpha  occ. eigenvalues --   -0.75792  -0.75240  -0.73066  -0.72243  -0.66990
 Alpha  occ. eigenvalues --   -0.65831  -0.63256  -0.62811  -0.61874  -0.59188
 Alpha  occ. eigenvalues --   -0.57624  -0.57354  -0.54738  -0.53882  -0.52220
 Alpha  occ. eigenvalues --   -0.50829  -0.50374  -0.48859  -0.48156  -0.47381
 Alpha  occ. eigenvalues --   -0.47034  -0.46710  -0.44830  -0.44383  -0.43631
 Alpha  occ. eigenvalues --   -0.42724  -0.42549  -0.41770  -0.41101  -0.40237
 Alpha  occ. eigenvalues --   -0.39260  -0.39037  -0.38665  -0.37158  -0.36883
 Alpha  occ. eigenvalues --   -0.36548  -0.35848  -0.35186  -0.34963  -0.34375
 Alpha  occ. eigenvalues --   -0.33825  -0.32109  -0.31632  -0.28478  -0.27953
 Alpha  occ. eigenvalues --   -0.27583  -0.25864  -0.25001  -0.22530  -0.21215
 Alpha virt. eigenvalues --   -0.03516  -0.02164  -0.00036   0.02299   0.03172
 Alpha virt. eigenvalues --    0.03670   0.04409   0.04659   0.05666   0.06570
 Alpha virt. eigenvalues --    0.07099   0.07893   0.08049   0.09124   0.09618

 Mulliken atomic charges:
              1
     1  O   -0.576670
     2  C   -0.088523
     3  C   -0.139572
     4  O   -0.482075
     5  C    0.037211
     6  C   -0.367046
     7  C   -0.354054
     8  C   -0.274753
     9  N   -0.493223
    10  C   -0.244780
    11  C    0.036624
    12  C   -0.084852
    13  C   -0.200111
    14  C   -0.074349
    15  C   -0.143101
    16  C   -0.125612
    17  C   -0.086888
    18  C   -0.198433
    19  C   -0.109203
    20  C   -0.190749
    21  C   -0.087075
    22  C   -0.029549
    23  H    0.357205
    24  H    0.175991
    25  H    0.145382
    26  H    0.186235
    27  H    0.168732
    28  H    0.194191
    29  H    0.186655
    30  H    0.176397
    31  H    0.181051
    32  H    0.193620
    33  H    0.183708
    34  H    0.271249
    35  H    0.196440
    36  H    0.203432
    37  H    0.152828
    38  H    0.143060
    39  H    0.163930
    40  H    0.171884
    41  H    0.150363
    42  H    0.149041
    43  H    0.146824
    44  H    0.166205
    45  H    0.212359
 Sum of Mulliken atomic charges =   0.00000

 Dipole moment (field-independent basis, Debye):
    X=              2.5152    Y=             -0.1480    Z=             -0.9344  Tot=              2.6872
 Quadrupole moment (field-independent basis, Debye-Ang):
   XX=           -117.6929   YY=           -128.0690   ZZ=           -135.9446
   XY=              8.2073   XZ=              8.1774   YZ=              1.4550

 1\1\GINC-A869AA4EB327\SP\RB3LYP\6-311G\C19H23N1O2\ROOT\09-Oct-2022\0\\
 #p b3lyp/6-311g gfinput iop(6/7=3) density guess=Read iop(6/50=1) iop(
 6/33=2) iop(6/42=6) pop=mk test units=(ang,deg)\\Title Card Required\\
 0,1\O,0,-3.675,-1.584,0.721\C,0,-2.858,-0.5,1.167\C,0,-1.587,-1.057,1.
 835\O,0,-0.769,0.028,2.282\C,0,0.41,-0.489,2.905\C,0,1.341,0.567,3.386
 \C,0,2.372,-0.176,4.279\C,0,2.629,-1.604,3.704\N,0,2.648,-1.492,2.283\
 C,0,1.223,-1.314,1.849\C,0,-2.464,0.376,-0.037\C,0,-3.276,1.453,-0.415
 \C,0,-2.919,2.249,-1.512\C,0,-1.748,1.969,-2.229\C,0,-0.935,0.892,-1.8

 Normal termination of Gaussian 09 at Sun Oct  9 18:18:55 2022.
