 Gaussian 09, Revision A.01,
 Gaussian 09:  EM64L-G09RevA.01  8-May-2009

 -------------------------
 # opt b3lyp/sto-3g nosymm
 -------------------------

 -------------------
 Title Card Required
 -------------------
 Symbolic Z-matrix:
 Charge =  0 Multiplicity = 1

 SCF Done:  E(RB3LYP) =  -1080.47622182     A.U. after   20 cycles
 SCF Done:  E(RB3LYP) =  -1080.52352617     A.U. after   15 cycles
 SCF Done:  E(RB3LYP) =  -1080.55148277     A.U. after   15 cycles
 SCF Done:  E(RB3LYP) =  -1080.55112409     A.U. after   17 cycles
 SCF Done:  E(RB3LYP) =  -1080.55323551     A.U. after   14 cycles
 SCF Done:  E(RB3LYP) =  -1080.55450258     A.U. after   14 cycles
 SCF Done:  E(RB3LYP) =  -1080.55562266     A.U. after   14 cycles
 SCF Done:  E(RB3LYP) =  -1080.55692336     A.U. after   17 cycles
 SCF Done:  E(RB3LYP) =  -1080.55373058     A.U. after   18 cycles
 SCF Done:  E(RB3LYP) =  -1080.55760276     A.U. after   18 cycles
 SCF Done:  E(RB3LYP) =  -1080.64440783     A.U. after   12 cycles
 SCF Done:  E(RB3LYP) =  -1080.64449836     A.U. after   12 cycles
 SCF Done:  E(RB3LYP) =  -1080.64456666     A.U. after   11 cycles
 SCF Done:  E(RB3LYP) =  -1080.64460249     A.U. after   11 cycles
 SCF Done:  E(RB3LYP) =  -1080.64461923     A.U. after   10 cycles
 SCF Done:  E(RB3LYP) =  -1080.64462572     A.U. after   10 cycles
 SCF Done:  E(RB3LYP) =  -1080.64462788     A.U. after    9 cycles
 SCF Done:  E(RB3LYP) =  -1080.64462873     A.U. after    9 cycles
 SCF Done:  E(RB3LYP) =  -1080.64462901     A.U. after    8 cycles
 SCF Done:  E(RB3LYP) =  -1080.64462909     A.U. after    7 cycles
 Optimization completed.
    -- Stationary point found.

                          Input orientation:
 ---------------------------------------------------------------------
 Center     Atomic      Atomic             Coordinates (Angstroms)
 Number     Number       Type             X           Y           Z
 ---------------------------------------------------------------------
      1          8           0       -4.027525   -3.734712   -0.294763
      2          6           0       -2.965262   -1.713625    0.827331
      3          6           0       -1.537907   -2.279765    1.256879
      4          6           0        0.159029   -0.418236    2.243146
      5          6           0        0.483425    1.106250    2.333134
      6          6           0        1.390621    1.381581    3.585930
      7          6           0        2.496271    0.239343    3.741138
      8          7           0        2.776789   -0.547797    2.477177
      9          6           0        1.502373   -1.245225    2.028262
     10          6           0       -2.289487   -0.308587    0.702445
     11          6           0       -2.927188    1.008189    0.956747
     12          6           0       -2.360808    2.149982    0.480057
     13          6           0       -1.164805    2.119755   -0.370199
     14          6           0       -0.561558    0.956867   -0.779234
     15          6           0        0.565270    0.938915   -1.780367
     16          6           0        1.406753   -0.201402   -1.899532
     17          6           0        2.464882   -0.231311   -2.825675
     18          6           0        2.709000    0.876944   -3.659925
     19          6           0        1.882336    2.014987   -3.561002
     20          6           0        0.824376    2.045960   -2.636871
     21          6           0       -1.076412   -0.381913   -0.281246
     22          6           0       -3.705940   -2.309018   -0.425906
     23          6           0       -0.887623   -0.852203    1.188441
     24          8           0       -1.126838   -3.390212    1.630060
     25          8           0        0.486587    1.439865    4.746335
     26          1           0       -4.628311   -3.735364    0.540493
     27          1           0       -3.644800   -1.742402    1.703037
     28          1           0       -0.255736   -0.705440    3.228863
     29          1           0       -0.445110    1.689770    2.441915
     30          1           0        0.995651    1.448772    1.419810
     31          1           0        1.907892    2.360081    3.435868
     32          1           0        2.155156   -0.478778    4.510985
     33          1           0        3.449974    0.684265    4.081824
     34          1           0        2.965584    0.189455    1.735978
     35          1           0        1.422101   -2.198910    2.583656
     36          1           0        1.629968   -1.487279    0.958136
     37          1           0       -3.871965    1.026887    1.517855
     38          1           0       -2.820910    3.126783    0.681285
     39          1           0       -0.786369    3.084488   -0.731019
     40          1           0        1.236077   -1.069054   -1.250159
     41          1           0        3.102971   -1.122799   -2.894009
     42          1           0        3.534106    0.853949   -4.384306
     43          1           0        2.059450    2.880464   -4.213742
     44          1           0        0.180844    2.933373   -2.588782
     45          1           0       -1.067182   -1.168812   -1.051159
     46          1           0       -4.614702   -1.689103   -0.618613
     47          1           0       -3.054224   -2.229227   -1.318869
     48          1           0        1.147175    1.626246    5.512589
 ---------------------------------------------------------------------

 Alpha  occ. eigenvalues --  -18.90633 -18.87839 -18.87138 -14.11561 -10.07290
 Alpha  occ. eigenvalues --  -10.05532 -10.05229 -10.03704 -10.03569 -10.03421
 Alpha  occ. eigenvalues --  -10.03300 -10.03041 -10.02620 -10.02577 -10.02461
 Alpha  occ. eigenvalues --  -10.02298 -10.01597 -10.01417 -10.01187 -10.01137
 Alpha  occ. eigenvalues --  -10.01084 -10.01052 -10.01035 -10.00927 -10.00859
 Alpha  occ. eigenvalues --   -0.98189  -0.93837  -0.93767  -0.85938  -0.84530
 Alpha  occ. eigenvalues --   -0.81068  -0.77021  -0.73879  -0.72972  -0.70373
 Alpha  occ. eigenvalues --   -0.69834  -0.68886  -0.67304  -0.63184  -0.61129
 Alpha  occ. eigenvalues --   -0.59585  -0.57979  -0.57265  -0.55771  -0.53812
 Alpha  occ. eigenvalues --   -0.52389  -0.50298  -0.48280  -0.47934  -0.46409
 Alpha  occ. eigenvalues --   -0.44963  -0.44015  -0.43296  -0.42375  -0.41620
 Alpha  occ. eigenvalues --   -0.41342  -0.40694  -0.39408  -0.38575  -0.38241
 Alpha  occ. eigenvalues --   -0.37924  -0.37755  -0.37547  -0.35979  -0.34903
 Alpha  occ. eigenvalues --   -0.34167  -0.33643  -0.32902  -0.32559  -0.32280
 Alpha  occ. eigenvalues --   -0.32123  -0.31458  -0.30886  -0.30105  -0.29339
 Alpha  occ. eigenvalues --   -0.28872  -0.28691  -0.28180  -0.27614  -0.25516
 Alpha  occ. eigenvalues --   -0.23716  -0.23619  -0.22564  -0.19999  -0.19826
 Alpha  occ. eigenvalues --   -0.15926  -0.15306  -0.14528  -0.13775  -0.12339
 Alpha virt. eigenvalues --    0.02868   0.07428   0.08470   0.10367   0.15709
 Alpha virt. eigenvalues --    0.22700   0.24470   0.26583   0.27153   0.29278
 Alpha virt. eigenvalues --    0.30376   0.31800   0.31848   0.32753   0.32915

 Mulliken atomic charges:
              1
     1  O   -0.235475
     2  C   -0.083238
     3  C    0.156403
     4  C   -0.059355
     5  C   -0.142234
     6  C    0.018064
     7  C   -0.084164
     8  N   -0.293519
     9  C   -0.069340
    10  C   -0.011251
    11  C   -0.076092
    12  C   -0.085045
    13  C   -0.083119
    14  C    0.002094
    15  C   -0.008054
    16  C   -0.079722
    17  C   -0.079089
    18  C   -0.077536
    19  C   -0.079302
    20  C   -0.076974
    21  C   -0.082874
    22  C   -0.054406
    23  C   -0.026087
    24  O   -0.173059
    25  O   -0.246552
    26  H    0.165300
    27  H    0.073305
    28  H    0.080576
    29  H    0.086772
    30  H    0.072525
    31  H    0.056766
    32  H    0.078467
    33  H    0.073860
    34  H    0.151185
    35  H    0.082735
    36  H    0.075684
    37  H    0.082010
    38  H    0.080336
    39  H    0.078105
    40  H    0.080651
    41  H    0.082151
    42  H    0.081278
    43  H    0.080466
    44  H    0.079125
    45  H    0.083038
    46  H    0.065463
    47  H    0.078708
    48  H    0.161419
 Sum of Mulliken atomic charges =   0.00000

 Dipole moment (field-independent basis, Debye):
    X=             -0.5938    Y=              3.4565    Z=              0.2442  Tot=              3.5156
 Quadrupole moment (field-independent basis, Debye-Ang):
   XX=           -129.2988   YY=           -143.7968   ZZ=           -130.9306
   XY=              2.7955   XZ=             -5.0081   YZ=              1.6074

 Normal termination of Gaussian 09 at Sun Oct  9 21:45:19 2022.
