 Gaussian 09, Revision A.01,
 Gaussian 09:  EM64L-G09RevA.01  8-May-2009

 -------------------------
 # opt b3lyp/6-311g nosymm
 -------------------------

 -------------------
 Title Card Required
 -------------------
 Symbolic Z-matrix:
 Charge =  0 Multiplicity = 1

 SCF Done:  E(RB3LYP) =  -942.969696830     A.U. after   14 cycles
 SCF Done:  E(RB3LYP) =  -942.991239600     A.U. after   13 cycles
 SCF Done:  E(RB3LYP) =  -943.003483777     A.U. after   14 cycles
 SCF Done:  E(RB3LYP) =  -943.006295893     A.U. after   13 cycles
 SCF Done:  E(RB3LYP) =  -943.007797776     A.U. after   14 cycles
 SCF Done:  E(RB3LYP) =  -943.010855742     A.U. after   15 cycles
 SCF Done:  E(RB3LYP) =  -943.012822570     A.U. after   13 cycles
 SCF Done:  E(RB3LYP) =  -943.014710666     A.U. after   14 cycles
 SCF Done:  E(RB3LYP) =  -943.015322648     A.U. after   14 cycles
 SCF Done:  E(RB3LYP) =  -943.015496914     A.U. after   14 cycles
 SCF Done:  E(RB3LYP) =  -943.017143462     A.U. after   12 cycles
 SCF Done:  E(RB3LYP) =  -943.017427880     A.U. after   12 cycles
 SCF Done:  E(RB3LYP) =  -943.017508554     A.U. after   12 cycles
 SCF Done:  E(RB3LYP) =  -943.017585756     A.U. after   11 cycles
 SCF Done:  E(RB3LYP) =  -943.017613658     A.U. after   10 cycles
 SCF Done:  E(RB3LYP) =  -943.017619724     A.U. after   11 cycles
 SCF Done:  E(RB3LYP) =  -943.017621437     A.U. after    8 cycles
 SCF Done:  E(RB3LYP) =  -943.017622709     A.U. after    8 cycles
 SCF Done:  E(RB3LYP) =  -943.017623347     A.U. after    8 cycles
 SCF Done:  E(RB3LYP) =  -943.017623565     A.U. after    8 cycles
 Optimization completed.
    -- Stationary point found.

                          Input orientation:
 ---------------------------------------------------------------------
 Center     Atomic      Atomic             Coordinates (Angstroms)
 Number     Number       Type             X           Y           Z
 ---------------------------------------------------------------------
      1          8           0       -2.550845   -1.992241   -0.241141
      2          6           0       -2.011008   -0.967920    0.653396
      3          6           0       -1.074988   -1.657088    1.656969
      4          8           0       -0.761683   -0.709154    2.706537
      5          6           0        0.253751   -1.150437    3.678834
      6          6           0        0.017635   -0.297467    4.937101
      7          6           0        1.322179   -0.083759    5.723630
      8          6           0        2.350942    0.693946    4.856416
      9          7           0        2.222199    0.392537    3.413331
     10          6           0        1.684909   -0.940079    3.127426
     11          6           0       -1.319111    0.077137   -0.197327
     12          6           0       -1.010693    1.331124    0.349299
     13          6           0       -0.343970    2.282269   -0.424566
     14          6           0        0.016918    1.995642   -1.741812
     15          6           0       -0.286125    0.745805   -2.308756
     16          6           0        0.088794    0.431109   -3.713727
     17          6           0       -0.777310   -0.301768   -4.546082
     18          6           0       -0.425808   -0.597865   -5.863811
     19          6           0        0.799371   -0.167456   -6.380206
     20          6           0        1.670460    0.560878   -5.565736
     21          6           0        1.319552    0.855799   -4.247401
     22          6           0       -0.957572   -0.203930   -1.518031
     23          1           0       -3.154147   -2.579055    0.245291
     24          1           0       -2.821554   -0.499865    1.220516
     25          1           0       -1.584983   -2.527793    2.091119
     26          1           0       -0.178517   -2.002726    1.135521
     27          1           0        0.085114   -2.215464    3.886230
     28          1           0       -0.757541   -0.748234    5.558047
     29          1           0       -0.368376    0.668305    4.601255
     30          1           0        1.736078   -1.053469    6.017303
     31          1           0        1.124837    0.459168    6.650624
     32          1           0        3.366409    0.463744    5.193521
     33          1           0        2.210264    1.768915    4.988565
     34          1           0        1.745282    1.116202    2.891939
     35          1           0        2.354024   -1.683002    3.571966
     36          1           0        1.701419   -1.106725    2.050309
     37          1           0       -1.285453    1.550231    1.371109
     38          1           0       -0.118231    3.254563   -0.005869
     39          1           0        0.506927    2.751120   -2.341363
     40          1           0       -1.737441   -0.620277   -4.163042
     41          1           0       -1.110555   -1.157055   -6.488059
     42          1           0        1.071755   -0.397026   -7.401813
     43          1           0        2.625712    0.891042   -5.952838
     44          1           0        2.013359    1.397080   -3.617959
     45          1           0       -1.200980   -1.173761   -1.923718
 ---------------------------------------------------------------------

 Alpha  occ. eigenvalues --  -19.12859 -19.12711 -14.28969 -10.24257 -10.23025
 Alpha  occ. eigenvalues --  -10.22934 -10.19625 -10.19536 -10.18737 -10.18617
 Alpha  occ. eigenvalues --  -10.18549 -10.17560 -10.17523 -10.17489 -10.17438
 Alpha  occ. eigenvalues --  -10.17427 -10.17347 -10.17334 -10.17309 -10.17306
 Alpha  occ. eigenvalues --  -10.17247 -10.16901  -1.03846  -1.02670  -0.90950
 Alpha  occ. eigenvalues --   -0.87263  -0.85316  -0.80028  -0.78500  -0.77049
 Alpha  occ. eigenvalues --   -0.75547  -0.74894  -0.72773  -0.71658  -0.65942
 Alpha  occ. eigenvalues --   -0.64686  -0.62867  -0.62249  -0.61095  -0.59123
 Alpha  occ. eigenvalues --   -0.57202  -0.55633  -0.53521  -0.52561  -0.51250
 Alpha  occ. eigenvalues --   -0.50224  -0.50109  -0.48626  -0.47518  -0.46607
 Alpha  occ. eigenvalues --   -0.46312  -0.44905  -0.43878  -0.43398  -0.43063
 Alpha  occ. eigenvalues --   -0.42776  -0.42308  -0.42231  -0.41001  -0.39411
 Alpha  occ. eigenvalues --   -0.38934  -0.38730  -0.37579  -0.37086  -0.35731
 Alpha  occ. eigenvalues --   -0.35467  -0.35315  -0.35219  -0.34353  -0.33725
 Alpha  occ. eigenvalues --   -0.33448  -0.32715  -0.31438  -0.28881  -0.27411
 Alpha  occ. eigenvalues --   -0.27039  -0.25379  -0.24854  -0.22574  -0.20559
 Alpha virt. eigenvalues --   -0.02807  -0.00646  -0.00279   0.01985   0.02598
 Alpha virt. eigenvalues --    0.03219   0.04230   0.05374   0.05655   0.06873
 Alpha virt. eigenvalues --    0.07036   0.08062   0.08408   0.08807   0.09586

 Mulliken atomic charges:
              1
     1  O   -0.613627
     2  C   -0.031496
     3  C   -0.059311
     4  O   -0.510389
     5  C    0.081755
     6  C   -0.350968
     7  C   -0.408598
     8  C   -0.156937
     9  N   -0.539587
    10  C   -0.235345
    11  C   -0.076329
    12  C   -0.085905
    13  C   -0.184545
    14  C   -0.098823
    15  C   -0.088813
    16  C   -0.092843
    17  C   -0.106581
    18  C   -0.172211
    19  C   -0.128515
    20  C   -0.172404
    21  C   -0.108173
    22  C   -0.062582
    23  H    0.365595
    24  H    0.184350
    25  H    0.146172
    26  H    0.176600
    27  H    0.149341
    28  H    0.177650
    29  H    0.193860
    30  H    0.175191
    31  H    0.177915
    32  H    0.179867
    33  H    0.169452
    34  H    0.290317
    35  H    0.181219
    36  H    0.198159
    37  H    0.165027
    38  H    0.142138
    39  H    0.161357
    40  H    0.170920
    41  H    0.147279
    42  H    0.148505
    43  H    0.146830
    44  H    0.162960
    45  H    0.191521
 Sum of Mulliken atomic charges =   0.00000

 Dipole moment (field-independent basis, Debye):
    X=             -0.9186    Y=             -1.1855    Z=              2.5443  Tot=              2.9534
 Quadrupole moment (field-independent basis, Debye-Ang):
   XX=           -133.2148   YY=           -125.1256   ZZ=           -120.3023
   XY=              7.2223   XZ=             -6.0987   YZ=             -2.0642

 Normal termination of Gaussian 09 at Sun Oct  9 18:02:30 2022.
